Ti    ONCVPSP-3.3.0  r_core=   1.35825   1.31050   1.66360
22.0000     12.0000      180429    zatom,zion,pspd
8 -116133   2     4   600     0    pspcod,pspxc,lmax,lloc,mmax,r2well
5.99000000  2.50000000  0.00000000    rchrg fchrg qchrg
2     3     2     0    nproj
3     1           extension_switch
4     3     0    nprojso
0                         1.2539360126722D+00  1.1321100966516D+01
1  0.0000000000000D+00  5.4323949782997D-09 -1.6251999745975D-09
2  1.0000000000000D-02 -4.5890475347961D-02  8.8979991667030D-02
3  2.0000000000000D-02 -9.1311259933352D-02  1.7766301345640D-01
4  3.0000000000000D-02 -1.3579828656869D-01  2.6575417355929D-01
5  4.0000000000000D-02 -1.7889864901133D-01  3.5296270964743D-01
6  5.0000000000000D-02 -2.2017596833803D-01  4.3900398739386D-01
7  6.0000000000000D-02 -2.5921550634203D-01  5.2360142070894D-01
8  7.0000000000000D-02 -2.9562894812463D-01  6.0648828954061D-01
9  8.0000000000000D-02 -3.2905878148525D-01  6.8740943271279D-01
10  9.0000000000000D-02 -3.5918220733596D-01  7.6612279525724D-01
11  1.0000000000000D-01 -3.8571452306872D-01  8.4240081199846D-01
12  1.1000000000000D-01 -4.0841192946058D-01  9.1603161174179D-01
13  1.2000000000000D-01 -4.2707372117160D-01  9.8682002924837D-01
14  1.3000000000000D-01 -4.4154383101591D-01  1.0545884152112D+00
15  1.4000000000000D-01 -4.5171170880303D-01  1.1191772376246D+00
16  1.5000000000000D-01 -4.5751252647721D-01  1.1804454712109D+00
17  1.6000000000000D-01 -4.5892671234910D-01  1.2382707748834D+00
18  1.7000000000000D-01 -4.5597882823123D-01  1.2925494605245D+00
19  1.8000000000000D-01 -4.4873581407525D-01  1.3431962595883D+00
20  1.9000000000000D-01 -4.3730463508541D-01  1.3901438971509D+00
21  2.0000000000000D-01 -4.2182937607481D-01  1.4333424859672D+00
22  2.1000000000000D-01 -4.0248783687670D-01  1.4727587558103D+00
23  2.2000000000000D-01 -3.7948769076873D-01  1.5083751358176D+00
24  2.3000000000000D-01 -3.5306227497650D-01  1.5401887097104D+00
25  2.4000000000000D-01 -3.2346608827291D-01  1.5682100655489D+00
26  2.5000000000000D-01 -2.9097007537894D-01  1.5924620631100D+00
27  2.6000000000000D-01 -2.5585678121790D-01  1.6129785429961D+00
28  2.7000000000000D-01 -2.1841546001811D-01  1.6298030021949D+00
29  2.8000000000000D-01 -1.7893722476256D-01  1.6429872609873D+00
30  2.9000000000000D-01 -1.3771032153259D-01  1.6525901458543D+00
31  3.0000000000000D-01 -9.5015610899616D-02  1.6586762123527D+00
32  3.1000000000000D-01 -5.1122334715704D-02  1.6613145308379D+00
33  3.2000000000000D-01 -6.2842415015718D-03  1.6605775564179D+00
34  3.3000000000000D-01  3.9263862792894D-02  1.6565401026519D+00
35  3.4000000000000D-01  8.5309079469629D-02  1.6492784363008D+00
36  3.5000000000000D-01  1.3166284665392D-01  1.6388695079081D+00
37  3.6000000000000D-01  1.7816279274403D-01  1.6253903302149D+00
38  3.7000000000000D-01  2.2467398301322D-01  1.6089175134019D+00
39  3.8000000000000D-01  2.7108953950193D-01  1.5895269629866D+00
40  3.9000000000000D-01  3.1733062559948D-01  1.5672937429163D+00
41  4.0000000000000D-01  3.6334579818216D-01  1.5422921030602D+00
42  4.1000000000000D-01  4.0910974165969D-01  1.5145956669618D+00
43  4.2000000000000D-01  4.5462140958342D-01  1.4842777724321D+00
44  4.3000000000000D-01  4.9990161039851D-01  1.4514119544006D+00
45  4.4000000000000D-01  5.4499008428781D-01  1.4160725564460D+00
46  4.5000000000000D-01  5.8994212767564D-01  1.3783354546653D+00
47  4.6000000000000D-01  6.3482483066631D-01  1.3382788750472D+00
48  4.7000000000000D-01  6.7971300032850D-01  1.2959842833503D+00
49  4.8000000000000D-01  7.2468484916200D-01  1.2515373246813D+00
50  4.9000000000000D-01  7.6981753317948D-01  1.2050287885623D+00
51  5.0000000000000D-01  8.1518262769989D-01  1.1565555743003D+00
52  5.1000000000000D-01  8.6084163111067D-01  1.1062216309407D+00
53  5.2000000000000D-01  9.0684158745537D-01  1.0541388460250D+00
54  5.3000000000000D-01  9.5321091772076D-01  1.0004278577749D+00
55  5.4000000000000D-01  9.9995554713271D-01  9.4521876620330D-01
56  5.5000000000000D-01  1.0470554116399D+00  8.8865171998853D-01
57  5.6000000000000D-01  1.0944614211469D+00  8.3087735772316D-01
58  5.7000000000000D-01  1.1420929499936D+00  7.7205708435191D-01
59  5.8000000000000D-01  1.1898359168164D+00  7.1236316619233D-01
60  5.9000000000000D-01  1.2375415063480D+00  6.5197863086683D-01
61  6.0000000000000D-01  1.2850255751134D+00  5.9109696170397D-01
62  6.1000000000000D-01  1.3320687714659D+00  5.2992157965792D-01
63  6.2000000000000D-01  1.3784173882632D+00  4.6866510946193D-01
64  6.3000000000000D-01  1.4237849537451D+00  4.0754843056239D-01
65  6.4000000000000D-01  1.4678545532703D+00  3.4679951724698D-01
66  6.5000000000000D-01  1.5102818614897D+00  2.8665207628493D-01
67  6.6000000000000D-01  1.5506988516408D+00  2.2734399422951D-01
68  6.7000000000000D-01  1.5887181361656D+00  1.6911561022884D-01
69  6.8000000000000D-01  1.6239378808694D+00  1.1220783371964D-01
70  6.9000000000000D-01  1.6559472237134D+00  5.6860129636323D-02
71  7.0000000000000D-01  1.6843321191643D+00  3.3083967223848D-03
72  7.1000000000000D-01  1.7086815200738D+00 -4.8217232893460D-02
73  7.2000000000000D-01  1.7285938013687D+00 -9.7494642510849D-02
74  7.3000000000000D-01  1.7436833237169D+00 -1.4431199601778D-01
75  7.4000000000000D-01  1.7535870307760D+00 -1.8846998613528D-01
76  7.5000000000000D-01  1.7579709707948D+00 -2.2978403179614D-01
77  7.6000000000000D-01  1.7565366322855D+00 -2.6808639056019D-01
78  7.7000000000000D-01  1.7490269842389D+00 -3.0322815237596D-01
79  7.8000000000000D-01  1.7352321139630D+00 -3.3508108196722D-01
80  7.9000000000000D-01  1.7149943600277D+00 -3.6353927863674D-01
81  8.0000000000000D-01  1.6882128439836D+00 -3.8852062433117D-01
82  8.1000000000000D-01  1.6548473123854D+00 -4.0996799336987D-01
83  8.2000000000000D-01  1.6149212101001D+00 -4.2785020027561D-01
84  8.3000000000000D-01  1.5685239167761D+00 -4.4216266561199D-01
85  8.4000000000000D-01  1.5158120905291D+00 -4.5292778358374D-01
86  8.5000000000000D-01  1.4570100761868D+00 -4.6019497933264D-01
87  8.6000000000000D-01  1.3924093496167D+00 -4.6404044830220D-01
88  8.7000000000000D-01  1.3223669845262D+00 -4.6456657468007D-01
89  8.8000000000000D-01  1.2473031434271D+00 -4.6190103068572D-01
90  8.9000000000000D-01  1.1676976099639D+00 -4.5619556327814D-01
91  9.0000000000000D-01  1.0840853952562D+00 -4.4762447963654D-01
92  9.1000000000000D-01  9.9705146605453D-01 -4.3638284743937D-01
93  9.2000000000000D-01  9.0722465709643D-01 -4.2268443045706D-01
94  9.3000000000000D-01  8.1527084384520D-01 -4.0675938420644D-01
95  9.4000000000000D-01  7.2188546454423D-01 -3.8885174032047D-01
96  9.5000000000000D-01  6.2778549202409D-01 -3.6921671179621D-01
97  9.6000000000000D-01  5.3370096573673D-01 -3.4811785433749D-01
98  9.7000000000000D-01  4.4036620293675D-01 -3.2582412156333D-01
99  9.8000000000000D-01  3.4851081443493D-01 -3.0260685380772D-01
100  9.9000000000000D-01  2.5885065519881D-01 -2.7873674167469D-01
101  1.0000000000000D+00  1.7207884265129D-01 -2.5448080624919D-01
102  1.0100000000000D+00  8.8856976138701D-02 -2.3009943799701D-01
103  1.0200000000000D+00  9.8066895284273D-03 -2.0584353586142D-01
104  1.0300000000000D+00 -6.4498334684839D-02 -1.8195178690251D-01
105  1.0400000000000D+00 -1.3353976748523D-01 -1.5864812488610D-01
106  1.0500000000000D+00 -1.9686133616422D-01 -1.3613940408633D-01
107  1.0600000000000D+00 -2.5407472312125D-01 -1.1461332119769D-01
108  1.0700000000000D+00 -3.0486456654919D-01 -9.4236614921638D-02
109  1.0800000000000D+00 -3.4899248198203D-01 -7.5153568719910D-02
110  1.0900000000000D+00 -3.8630003926284D-01 -5.7484837381854D-02
111  1.1000000000000D+00 -4.1671064212741D-01 -4.1326614126734D-02
112  1.1100000000000D+00 -4.4023027787634D-01 -2.6750148672588D-02
113  1.1200000000000D+00 -4.5694711916508D-01 -1.3801622193923D-02
114  1.1300000000000D+00 -4.6702997974857D-01 -2.5023789587175D-03
115  1.1400000000000D+00 -4.7072564100399D-01  7.1504902015227D-03
116  1.1500000000000D+00 -4.6835508648274D-01  1.5183223750751D-02
117  1.1600000000000D+00 -4.6030869804868D-01  2.1644140836203D-02
118  1.1700000000000D+00 -4.4704048493933D-01  2.6602089896386D-02
119  1.1800000000000D+00 -4.2906142874859D-01  3.0144619782122D-02
120  1.1900000000000D+00 -4.0693204732658D-01  3.2375904856589D-02
121  1.2000000000000D+00 -3.8125429061840D-01  3.3414458634701D-02
122  1.2100000000000D+00 -3.5266289274680D-01  3.3390674005976D-02
123  1.2200000000000D+00 -3.2181631399152D-01  3.2444230970085D-02
124  1.2300000000000D+00 -2.8938741646845D-01  3.0721415949890D-02
125  1.2400000000000D+00 -2.5605401916447D-01  2.8372397326158D-02
126  1.2500000000000D+00 -2.2248948286399D-01  2.5548503342759D-02
127  1.2600000000000D+00 -1.8935347780608D-01  2.2399549258055D-02
128  1.2700000000000D+00 -1.5728309091734D-01  1.9071261522024D-02
129  1.2800000000000D+00 -1.2688435601649D-01  1.5702826695557D-02
130  1.2900000000000D+00 -9.8724587987498D-02  1.2424674495076D-02
131  1.3000000000000D+00 -7.3324667953729D-02  9.3562625116643D-03
132  1.3100000000000D+00 -5.1154861072376D-02  6.6048578142538D-03
133  1.3200000000000D+00 -3.2638814753005D-02  4.2648267265397D-03
134  1.3300000000000D+00 -1.8025718056870D-02  2.3977454978663D-03
135  1.3400000000000D+00 -7.7185951270160D-03  1.0780954506538D-03
136  1.3500000000000D+00 -2.1377400127882D-03  3.7556237978486D-04
137  1.3600000000000D+00 -1.4741304479463D-04  1.0658183551500D-04
138  1.3700000000000D+00  8.7248517629955D-05  1.4251125744389D-05
139  1.3800000000000D+00 -5.0961091118413D-05 -3.3340468722508D-06
140  1.3900000000000D+00 -1.0121120017036D-05 -3.0220249849973D-07
141  1.4000000000000D+00  8.5321387843852D-06  1.1465418892682D-06
142  1.4100000000000D+00  4.2914592208422D-07 -1.8118537095240D-07
143  1.4200000000000D+00  6.6742916841110D-07 -2.8178853681216D-07
144  1.4300000000000D+00  0.0000000000000D+00  0.0000000000000D+00
145  1.4400000000000D+00  0.0000000000000D+00  0.0000000000000D+00
146  1.4500000000000D+00  0.0000000000000D+00  0.0000000000000D+00
147  1.4600000000000D+00  0.0000000000000D+00  0.0000000000000D+00
148  1.4700000000000D+00  0.0000000000000D+00  0.0000000000000D+00
149  1.4800000000000D+00  0.0000000000000D+00  0.0000000000000D+00
150  1.4900000000000D+00  0.0000000000000D+00  0.0000000000000D+00
151  1.5000000000000D+00  0.0000000000000D+00  0.0000000000000D+00
152  1.5100000000000D+00  0.0000000000000D+00  0.0000000000000D+00
153  1.5200000000000D+00  0.0000000000000D+00  0.0000000000000D+00
154  1.5300000000000D+00  0.0000000000000D+00  0.0000000000000D+00
155  1.5400000000000D+00  0.0000000000000D+00  0.0000000000000D+00
156  1.5500000000000D+00  0.0000000000000D+00  0.0000000000000D+00
157  1.5600000000000D+00  0.0000000000000D+00  0.0000000000000D+00
158  1.5700000000000D+00  0.0000000000000D+00  0.0000000000000D+00
159  1.5800000000000D+00  0.0000000000000D+00  0.0000000000000D+00
160  1.5900000000000D+00  0.0000000000000D+00  0.0000000000000D+00
161  1.6000000000000D+00  0.0000000000000D+00  0.0000000000000D+00
162  1.6100000000000D+00  0.0000000000000D+00  0.0000000000000D+00
163  1.6200000000000D+00  0.0000000000000D+00  0.0000000000000D+00
164  1.6300000000000D+00  0.0000000000000D+00  0.0000000000000D+00
165  1.6400000000000D+00  0.0000000000000D+00  0.0000000000000D+00
166  1.6500000000000D+00  0.0000000000000D+00  0.0000000000000D+00
167  1.6600000000000D+00  0.0000000000000D+00  0.0000000000000D+00
168  1.6700000000000D+00  0.0000000000000D+00  0.0000000000000D+00
169  1.6800000000000D+00  0.0000000000000D+00  0.0000000000000D+00
170  1.6900000000000D+00  0.0000000000000D+00  0.0000000000000D+00
171  1.7000000000000D+00  0.0000000000000D+00  0.0000000000000D+00
172  1.7100000000000D+00  0.0000000000000D+00  0.0000000000000D+00
173  1.7200000000000D+00  0.0000000000000D+00  0.0000000000000D+00
174  1.7300000000000D+00  0.0000000000000D+00  0.0000000000000D+00
175  1.7400000000000D+00  0.0000000000000D+00  0.0000000000000D+00
176  1.7500000000000D+00  0.0000000000000D+00  0.0000000000000D+00
177  1.7600000000000D+00  0.0000000000000D+00  0.0000000000000D+00
178  1.7700000000000D+00  0.0000000000000D+00  0.0000000000000D+00
179  1.7800000000000D+00  0.0000000000000D+00  0.0000000000000D+00
180  1.7900000000000D+00  0.0000000000000D+00  0.0000000000000D+00
181  1.8000000000000D+00  0.0000000000000D+00  0.0000000000000D+00
182  1.8100000000000D+00  0.0000000000000D+00  0.0000000000000D+00
183  1.8200000000000D+00  0.0000000000000D+00  0.0000000000000D+00
184  1.8300000000000D+00  0.0000000000000D+00  0.0000000000000D+00
185  1.8400000000000D+00  0.0000000000000D+00  0.0000000000000D+00
186  1.8500000000000D+00  0.0000000000000D+00  0.0000000000000D+00
187  1.8600000000000D+00  0.0000000000000D+00  0.0000000000000D+00
188  1.8700000000000D+00  0.0000000000000D+00  0.0000000000000D+00
189  1.8800000000000D+00  0.0000000000000D+00  0.0000000000000D+00
190  1.8900000000000D+00  0.0000000000000D+00  0.0000000000000D+00
191  1.9000000000000D+00  0.0000000000000D+00  0.0000000000000D+00
192  1.9100000000000D+00  0.0000000000000D+00  0.0000000000000D+00
193  1.9200000000000D+00  0.0000000000000D+00  0.0000000000000D+00
194  1.9300000000000D+00  0.0000000000000D+00  0.0000000000000D+00
195  1.9400000000000D+00  0.0000000000000D+00  0.0000000000000D+00
196  1.9500000000000D+00  0.0000000000000D+00  0.0000000000000D+00
197  1.9600000000000D+00  0.0000000000000D+00  0.0000000000000D+00
198  1.9700000000000D+00  0.0000000000000D+00  0.0000000000000D+00
199  1.9800000000000D+00  0.0000000000000D+00  0.0000000000000D+00
200  1.9900000000000D+00  0.0000000000000D+00  0.0000000000000D+00
201  2.0000000000000D+00  0.0000000000000D+00  0.0000000000000D+00
202  2.0100000000000D+00  0.0000000000000D+00  0.0000000000000D+00
203  2.0200000000000D+00  0.0000000000000D+00  0.0000000000000D+00
204  2.0300000000000D+00  0.0000000000000D+00  0.0000000000000D+00
205  2.0400000000000D+00  0.0000000000000D+00  0.0000000000000D+00
206  2.0500000000000D+00  0.0000000000000D+00  0.0000000000000D+00
207  2.0600000000000D+00  0.0000000000000D+00  0.0000000000000D+00
208  2.0700000000000D+00  0.0000000000000D+00  0.0000000000000D+00
209  2.0800000000000D+00  0.0000000000000D+00  0.0000000000000D+00
210  2.0900000000000D+00  0.0000000000000D+00  0.0000000000000D+00
211  2.1000000000000D+00  0.0000000000000D+00  0.0000000000000D+00
212  2.1100000000000D+00  0.0000000000000D+00  0.0000000000000D+00
213  2.1200000000000D+00  0.0000000000000D+00  0.0000000000000D+00
214  2.1300000000000D+00  0.0000000000000D+00  0.0000000000000D+00
215  2.1400000000000D+00  0.0000000000000D+00  0.0000000000000D+00
216  2.1500000000000D+00  0.0000000000000D+00  0.0000000000000D+00
217  2.1600000000000D+00  0.0000000000000D+00  0.0000000000000D+00
218  2.1700000000000D+00  0.0000000000000D+00  0.0000000000000D+00
219  2.1800000000000D+00  0.0000000000000D+00  0.0000000000000D+00
220  2.1900000000000D+00  0.0000000000000D+00  0.0000000000000D+00
221  2.2000000000000D+00  0.0000000000000D+00  0.0000000000000D+00
222  2.2100000000000D+00  0.0000000000000D+00  0.0000000000000D+00
223  2.2200000000000D+00  0.0000000000000D+00  0.0000000000000D+00
224  2.2300000000000D+00  0.0000000000000D+00  0.0000000000000D+00
225  2.2400000000000D+00  0.0000000000000D+00  0.0000000000000D+00
226  2.2500000000000D+00  0.0000000000000D+00  0.0000000000000D+00
227  2.2600000000000D+00  0.0000000000000D+00  0.0000000000000D+00
228  2.2700000000000D+00  0.0000000000000D+00  0.0000000000000D+00
229  2.2800000000000D+00  0.0000000000000D+00  0.0000000000000D+00
230  2.2900000000000D+00  0.0000000000000D+00  0.0000000000000D+00
231  2.3000000000000D+00  0.0000000000000D+00  0.0000000000000D+00
232  2.3100000000000D+00  0.0000000000000D+00  0.0000000000000D+00
233  2.3200000000000D+00  0.0000000000000D+00  0.0000000000000D+00
234  2.3300000000000D+00  0.0000000000000D+00  0.0000000000000D+00
235  2.3400000000000D+00  0.0000000000000D+00  0.0000000000000D+00
236  2.3500000000000D+00  0.0000000000000D+00  0.0000000000000D+00
237  2.3600000000000D+00  0.0000000000000D+00  0.0000000000000D+00
238  2.3700000000000D+00  0.0000000000000D+00  0.0000000000000D+00
239  2.3800000000000D+00  0.0000000000000D+00  0.0000000000000D+00
240  2.3900000000000D+00  0.0000000000000D+00  0.0000000000000D+00
241  2.4000000000000D+00  0.0000000000000D+00  0.0000000000000D+00
242  2.4100000000000D+00  0.0000000000000D+00  0.0000000000000D+00
243  2.4200000000000D+00  0.0000000000000D+00  0.0000000000000D+00
244  2.4300000000000D+00  0.0000000000000D+00  0.0000000000000D+00
245  2.4400000000000D+00  0.0000000000000D+00  0.0000000000000D+00
246  2.4500000000000D+00  0.0000000000000D+00  0.0000000000000D+00
247  2.4600000000000D+00  0.0000000000000D+00  0.0000000000000D+00
248  2.4700000000000D+00  0.0000000000000D+00  0.0000000000000D+00
249  2.4800000000000D+00  0.0000000000000D+00  0.0000000000000D+00
250  2.4900000000000D+00  0.0000000000000D+00  0.0000000000000D+00
251  2.5000000000000D+00  0.0000000000000D+00  0.0000000000000D+00
252  2.5100000000000D+00  0.0000000000000D+00  0.0000000000000D+00
253  2.5200000000000D+00  0.0000000000000D+00  0.0000000000000D+00
254  2.5300000000000D+00  0.0000000000000D+00  0.0000000000000D+00
255  2.5400000000000D+00  0.0000000000000D+00  0.0000000000000D+00
256  2.5500000000000D+00  0.0000000000000D+00  0.0000000000000D+00
257  2.5600000000000D+00  0.0000000000000D+00  0.0000000000000D+00
258  2.5700000000000D+00  0.0000000000000D+00  0.0000000000000D+00
259  2.5800000000000D+00  0.0000000000000D+00  0.0000000000000D+00
260  2.5900000000000D+00  0.0000000000000D+00  0.0000000000000D+00
261  2.6000000000000D+00  0.0000000000000D+00  0.0000000000000D+00
262  2.6100000000000D+00  0.0000000000000D+00  0.0000000000000D+00
263  2.6200000000000D+00  0.0000000000000D+00  0.0000000000000D+00
264  2.6300000000000D+00  0.0000000000000D+00  0.0000000000000D+00
265  2.6400000000000D+00  0.0000000000000D+00  0.0000000000000D+00
266  2.6500000000000D+00  0.0000000000000D+00  0.0000000000000D+00
267  2.6600000000000D+00  0.0000000000000D+00  0.0000000000000D+00
268  2.6700000000000D+00  0.0000000000000D+00  0.0000000000000D+00
269  2.6800000000000D+00  0.0000000000000D+00  0.0000000000000D+00
270  2.6900000000000D+00  0.0000000000000D+00  0.0000000000000D+00
271  2.7000000000000D+00  0.0000000000000D+00  0.0000000000000D+00
272  2.7100000000000D+00  0.0000000000000D+00  0.0000000000000D+00
273  2.7200000000000D+00  0.0000000000000D+00  0.0000000000000D+00
274  2.7300000000000D+00  0.0000000000000D+00  0.0000000000000D+00
275  2.7400000000000D+00  0.0000000000000D+00  0.0000000000000D+00
276  2.7500000000000D+00  0.0000000000000D+00  0.0000000000000D+00
277  2.7600000000000D+00  0.0000000000000D+00  0.0000000000000D+00
278  2.7700000000000D+00  0.0000000000000D+00  0.0000000000000D+00
279  2.7800000000000D+00  0.0000000000000D+00  0.0000000000000D+00
280  2.7900000000000D+00  0.0000000000000D+00  0.0000000000000D+00
281  2.8000000000000D+00  0.0000000000000D+00  0.0000000000000D+00
282  2.8100000000000D+00  0.0000000000000D+00  0.0000000000000D+00
283  2.8200000000000D+00  0.0000000000000D+00  0.0000000000000D+00
284  2.8300000000000D+00  0.0000000000000D+00  0.0000000000000D+00
285  2.8400000000000D+00  0.0000000000000D+00  0.0000000000000D+00
286  2.8500000000000D+00  0.0000000000000D+00  0.0000000000000D+00
287  2.8600000000000D+00  0.0000000000000D+00  0.0000000000000D+00
288  2.8700000000000D+00  0.0000000000000D+00  0.0000000000000D+00
289  2.8800000000000D+00  0.0000000000000D+00  0.0000000000000D+00
290  2.8900000000000D+00  0.0000000000000D+00  0.0000000000000D+00
291  2.9000000000000D+00  0.0000000000000D+00  0.0000000000000D+00
292  2.9100000000000D+00  0.0000000000000D+00  0.0000000000000D+00
293  2.9200000000000D+00  0.0000000000000D+00  0.0000000000000D+00
294  2.9300000000000D+00  0.0000000000000D+00  0.0000000000000D+00
295  2.9400000000000D+00  0.0000000000000D+00  0.0000000000000D+00
296  2.9500000000000D+00  0.0000000000000D+00  0.0000000000000D+00
297  2.9600000000000D+00  0.0000000000000D+00  0.0000000000000D+00
298  2.9700000000000D+00  0.0000000000000D+00  0.0000000000000D+00
299  2.9800000000000D+00  0.0000000000000D+00  0.0000000000000D+00
300  2.9900000000000D+00  0.0000000000000D+00  0.0000000000000D+00
301  3.0000000000000D+00  0.0000000000000D+00  0.0000000000000D+00
302  3.0100000000000D+00  0.0000000000000D+00  0.0000000000000D+00
303  3.0200000000000D+00  0.0000000000000D+00  0.0000000000000D+00
304  3.0300000000000D+00  0.0000000000000D+00  0.0000000000000D+00
305  3.0400000000000D+00  0.0000000000000D+00  0.0000000000000D+00
306  3.0500000000000D+00  0.0000000000000D+00  0.0000000000000D+00
307  3.0600000000000D+00  0.0000000000000D+00  0.0000000000000D+00
308  3.0700000000000D+00  0.0000000000000D+00  0.0000000000000D+00
309  3.0800000000000D+00  0.0000000000000D+00  0.0000000000000D+00
310  3.0900000000000D+00  0.0000000000000D+00  0.0000000000000D+00
311  3.1000000000000D+00  0.0000000000000D+00  0.0000000000000D+00
312  3.1100000000000D+00  0.0000000000000D+00  0.0000000000000D+00
313  3.1200000000000D+00  0.0000000000000D+00  0.0000000000000D+00
314  3.1300000000000D+00  0.0000000000000D+00  0.0000000000000D+00
315  3.1400000000000D+00  0.0000000000000D+00  0.0000000000000D+00
316  3.1500000000000D+00  0.0000000000000D+00  0.0000000000000D+00
317  3.1600000000000D+00  0.0000000000000D+00  0.0000000000000D+00
318  3.1700000000000D+00  0.0000000000000D+00  0.0000000000000D+00
319  3.1800000000000D+00  0.0000000000000D+00  0.0000000000000D+00
320  3.1900000000000D+00  0.0000000000000D+00  0.0000000000000D+00
321  3.2000000000000D+00  0.0000000000000D+00  0.0000000000000D+00
322  3.2100000000000D+00  0.0000000000000D+00  0.0000000000000D+00
323  3.2200000000000D+00  0.0000000000000D+00  0.0000000000000D+00
324  3.2300000000000D+00  0.0000000000000D+00  0.0000000000000D+00
325  3.2400000000000D+00  0.0000000000000D+00  0.0000000000000D+00
326  3.2500000000000D+00  0.0000000000000D+00  0.0000000000000D+00
327  3.2600000000000D+00  0.0000000000000D+00  0.0000000000000D+00
328  3.2700000000000D+00  0.0000000000000D+00  0.0000000000000D+00
329  3.2800000000000D+00  0.0000000000000D+00  0.0000000000000D+00
330  3.2900000000000D+00  0.0000000000000D+00  0.0000000000000D+00
331  3.3000000000000D+00  0.0000000000000D+00  0.0000000000000D+00
332  3.3100000000000D+00  0.0000000000000D+00  0.0000000000000D+00
333  3.3200000000000D+00  0.0000000000000D+00  0.0000000000000D+00
334  3.3300000000000D+00  0.0000000000000D+00  0.0000000000000D+00
335  3.3400000000000D+00  0.0000000000000D+00  0.0000000000000D+00
336  3.3500000000000D+00  0.0000000000000D+00  0.0000000000000D+00
337  3.3600000000000D+00  0.0000000000000D+00  0.0000000000000D+00
338  3.3700000000000D+00  0.0000000000000D+00  0.0000000000000D+00
339  3.3800000000000D+00  0.0000000000000D+00  0.0000000000000D+00
340  3.3900000000000D+00  0.0000000000000D+00  0.0000000000000D+00
341  3.4000000000000D+00  0.0000000000000D+00  0.0000000000000D+00
342  3.4100000000000D+00  0.0000000000000D+00  0.0000000000000D+00
343  3.4200000000000D+00  0.0000000000000D+00  0.0000000000000D+00
344  3.4300000000000D+00  0.0000000000000D+00  0.0000000000000D+00
345  3.4400000000000D+00  0.0000000000000D+00  0.0000000000000D+00
346  3.4500000000000D+00  0.0000000000000D+00  0.0000000000000D+00
347  3.4600000000000D+00  0.0000000000000D+00  0.0000000000000D+00
348  3.4700000000000D+00  0.0000000000000D+00  0.0000000000000D+00
349  3.4800000000000D+00  0.0000000000000D+00  0.0000000000000D+00
350  3.4900000000000D+00  0.0000000000000D+00  0.0000000000000D+00
351  3.5000000000000D+00  0.0000000000000D+00  0.0000000000000D+00
352  3.5100000000000D+00  0.0000000000000D+00  0.0000000000000D+00
353  3.5200000000000D+00  0.0000000000000D+00  0.0000000000000D+00
354  3.5300000000000D+00  0.0000000000000D+00  0.0000000000000D+00
355  3.5400000000000D+00  0.0000000000000D+00  0.0000000000000D+00
356  3.5500000000000D+00  0.0000000000000D+00  0.0000000000000D+00
357  3.5600000000000D+00  0.0000000000000D+00  0.0000000000000D+00
358  3.5700000000000D+00  0.0000000000000D+00  0.0000000000000D+00
359  3.5800000000000D+00  0.0000000000000D+00  0.0000000000000D+00
360  3.5900000000000D+00  0.0000000000000D+00  0.0000000000000D+00
361  3.6000000000000D+00  0.0000000000000D+00  0.0000000000000D+00
362  3.6100000000000D+00  0.0000000000000D+00  0.0000000000000D+00
363  3.6200000000000D+00  0.0000000000000D+00  0.0000000000000D+00
364  3.6300000000000D+00  0.0000000000000D+00  0.0000000000000D+00
365  3.6400000000000D+00  0.0000000000000D+00  0.0000000000000D+00
366  3.6500000000000D+00  0.0000000000000D+00  0.0000000000000D+00
367  3.6600000000000D+00  0.0000000000000D+00  0.0000000000000D+00
368  3.6700000000000D+00  0.0000000000000D+00  0.0000000000000D+00
369  3.6800000000000D+00  0.0000000000000D+00  0.0000000000000D+00
370  3.6900000000000D+00  0.0000000000000D+00  0.0000000000000D+00
371  3.7000000000000D+00  0.0000000000000D+00  0.0000000000000D+00
372  3.7100000000000D+00  0.0000000000000D+00  0.0000000000000D+00
373  3.7200000000000D+00  0.0000000000000D+00  0.0000000000000D+00
374  3.7300000000000D+00  0.0000000000000D+00  0.0000000000000D+00
375  3.7400000000000D+00  0.0000000000000D+00  0.0000000000000D+00
376  3.7500000000000D+00  0.0000000000000D+00  0.0000000000000D+00
377  3.7600000000000D+00  0.0000000000000D+00  0.0000000000000D+00
378  3.7700000000000D+00  0.0000000000000D+00  0.0000000000000D+00
379  3.7800000000000D+00  0.0000000000000D+00  0.0000000000000D+00
380  3.7900000000000D+00  0.0000000000000D+00  0.0000000000000D+00
381  3.8000000000000D+00  0.0000000000000D+00  0.0000000000000D+00
382  3.8100000000000D+00  0.0000000000000D+00  0.0000000000000D+00
383  3.8200000000000D+00  0.0000000000000D+00  0.0000000000000D+00
384  3.8300000000000D+00  0.0000000000000D+00  0.0000000000000D+00
385  3.8400000000000D+00  0.0000000000000D+00  0.0000000000000D+00
386  3.8500000000000D+00  0.0000000000000D+00  0.0000000000000D+00
387  3.8600000000000D+00  0.0000000000000D+00  0.0000000000000D+00
388  3.8700000000000D+00  0.0000000000000D+00  0.0000000000000D+00
389  3.8800000000000D+00  0.0000000000000D+00  0.0000000000000D+00
390  3.8900000000000D+00  0.0000000000000D+00  0.0000000000000D+00
391  3.9000000000000D+00  0.0000000000000D+00  0.0000000000000D+00
392  3.9100000000000D+00  0.0000000000000D+00  0.0000000000000D+00
393  3.9200000000000D+00  0.0000000000000D+00  0.0000000000000D+00
394  3.9300000000000D+00  0.0000000000000D+00  0.0000000000000D+00
395  3.9400000000000D+00  0.0000000000000D+00  0.0000000000000D+00
396  3.9500000000000D+00  0.0000000000000D+00  0.0000000000000D+00
397  3.9600000000000D+00  0.0000000000000D+00  0.0000000000000D+00
398  3.9700000000000D+00  0.0000000000000D+00  0.0000000000000D+00
399  3.9800000000000D+00  0.0000000000000D+00  0.0000000000000D+00
400  3.9900000000000D+00  0.0000000000000D+00  0.0000000000000D+00
401  4.0000000000000D+00  0.0000000000000D+00  0.0000000000000D+00
402  4.0100000000000D+00  0.0000000000000D+00  0.0000000000000D+00
403  4.0200000000000D+00  0.0000000000000D+00  0.0000000000000D+00
404  4.0300000000000D+00  0.0000000000000D+00  0.0000000000000D+00
405  4.0400000000000D+00  0.0000000000000D+00  0.0000000000000D+00
406  4.0500000000000D+00  0.0000000000000D+00  0.0000000000000D+00
407  4.0600000000000D+00  0.0000000000000D+00  0.0000000000000D+00
408  4.0700000000000D+00  0.0000000000000D+00  0.0000000000000D+00
409  4.0800000000000D+00  0.0000000000000D+00  0.0000000000000D+00
410  4.0900000000000D+00  0.0000000000000D+00  0.0000000000000D+00
411  4.1000000000000D+00  0.0000000000000D+00  0.0000000000000D+00
412  4.1100000000000D+00  0.0000000000000D+00  0.0000000000000D+00
413  4.1200000000000D+00  0.0000000000000D+00  0.0000000000000D+00
414  4.1300000000000D+00  0.0000000000000D+00  0.0000000000000D+00
415  4.1400000000000D+00  0.0000000000000D+00  0.0000000000000D+00
416  4.1500000000000D+00  0.0000000000000D+00  0.0000000000000D+00
417  4.1600000000000D+00  0.0000000000000D+00  0.0000000000000D+00
418  4.1700000000000D+00  0.0000000000000D+00  0.0000000000000D+00
419  4.1800000000000D+00  0.0000000000000D+00  0.0000000000000D+00
420  4.1900000000000D+00  0.0000000000000D+00  0.0000000000000D+00
421  4.2000000000000D+00  0.0000000000000D+00  0.0000000000000D+00
422  4.2100000000000D+00  0.0000000000000D+00  0.0000000000000D+00
423  4.2200000000000D+00  0.0000000000000D+00  0.0000000000000D+00
424  4.2300000000000D+00  0.0000000000000D+00  0.0000000000000D+00
425  4.2400000000000D+00  0.0000000000000D+00  0.0000000000000D+00
426  4.2500000000000D+00  0.0000000000000D+00  0.0000000000000D+00
427  4.2600000000000D+00  0.0000000000000D+00  0.0000000000000D+00
428  4.2700000000000D+00  0.0000000000000D+00  0.0000000000000D+00
429  4.2800000000000D+00  0.0000000000000D+00  0.0000000000000D+00
430  4.2900000000000D+00  0.0000000000000D+00  0.0000000000000D+00
431  4.3000000000000D+00  0.0000000000000D+00  0.0000000000000D+00
432  4.3100000000000D+00  0.0000000000000D+00  0.0000000000000D+00
433  4.3200000000000D+00  0.0000000000000D+00  0.0000000000000D+00
434  4.3300000000000D+00  0.0000000000000D+00  0.0000000000000D+00
435  4.3400000000000D+00  0.0000000000000D+00  0.0000000000000D+00
436  4.3500000000000D+00  0.0000000000000D+00  0.0000000000000D+00
437  4.3600000000000D+00  0.0000000000000D+00  0.0000000000000D+00
438  4.3700000000000D+00  0.0000000000000D+00  0.0000000000000D+00
439  4.3800000000000D+00  0.0000000000000D+00  0.0000000000000D+00
440  4.3900000000000D+00  0.0000000000000D+00  0.0000000000000D+00
441  4.4000000000000D+00  0.0000000000000D+00  0.0000000000000D+00
442  4.4100000000000D+00  0.0000000000000D+00  0.0000000000000D+00
443  4.4200000000000D+00  0.0000000000000D+00  0.0000000000000D+00